# vtk DataFile Version 1.0
2D Unstructured Grid of Linear Triangles
ASCII

DATASET UNSTRUCTURED_GRID
POINTS 341 float
0.0  35.0  0.0
0.875  35.0  0.0
0.0  33.25  0.0
1.75  35.0  0.0
1.75  33.25  0.0
2.625  35.0  0.0
0.0  31.5  0.0
3.5  35.0  0.0
0.875  31.5  0.0
3.5  33.25  0.0
1.75  31.5  0.0
2.625  31.5  0.0
4.375  35.0  0.0
3.5  31.5  0.0
0.0  29.75  0.0
5.25  35.0  0.0
1.75  29.75  0.0
5.25  33.25  0.0
4.375  31.5  0.0
6.125  35.0  0.0
3.5  29.75  0.0
5.25  31.5  0.0
0.0  28.0  0.0
7.0  35.0  0.0
6.125  31.5  0.0
0.875  28.0  0.0
7.0  33.25  0.0
1.75  28.0  0.0
5.25  29.75  0.0
2.625  28.0  0.0
7.0  31.5  0.0
3.5  28.0  0.0
7.875  35.0  0.0
4.375  28.0  0.0
7.875  31.5  0.0
8.75  35.0  0.0
0.0  26.25  0.0
7.0  29.75  0.0
5.25  28.0  0.0
8.75  33.25  0.0
1.75  26.25  0.0
6.125  28.0  0.0
8.75  31.5  0.0
3.5  26.25  0.0
9.625  35.0  0.0
7.0  28.0  0.0
8.75  29.75  0.0
5.25  26.25  0.0
9.625  31.5  0.0
10.5  35.0  0.0
0.0  24.5  0.0
7.875  28.0  0.0
0.875  24.5  0.0
1.75  24.5  0.0
10.5  33.25  0.0
2.625  24.5  0.0
3.5  24.5  0.0
10.5  31.5  0.0
8.75  28.0  0.0
7.0  26.25  0.0
11.375  35.0  0.0
4.375  24.5  0.0
10.5  29.75  0.0
5.25  24.5  0.0
11.375  31.5  0.0
9.625  28.0  0.0
6.125  24.5  0.0
0.0  22.75  0.0
12.25  35.0  0.0
12.25  33.25  0.0
1.75  22.75  0.0
8.75  26.25  0.0
7.0  24.5  0.0
10.5  28.0  0.0
3.5  22.75  0.0
12.25  31.5  0.0
7.875  24.5  0.0
13.125  35.0  0.0
5.25  22.75  0.0
12.25  29.75  0.0
11.375  28.0  0.0
13.125  31.5  0.0
10.5  26.25  0.0
8.75  24.5  0.0
0.0  21.0  0.0
14.0  35.0  0.0
0.875  21.0  0.0
14.0  33.25  0.0
7.0  22.75  0.0
12.25  28.0  0.0
1.75  21.0  0.0
9.625  24.5  0.0
2.625  21.0  0.0
14.0  31.5  0.0
3.5  21.0  0.0
4.375  21.0  0.0
10.5  24.5  0.0
13.125  28.0  0.0
14.875  35.0  0.0
14.0  29.75  0.0
5.25  21.0  0.0
8.75  22.75  0.0
12.25  26.25  0.0
6.125  21.0  0.0
14.875  31.5  0.0
11.375  24.5  0.0
14.0  28.0  0.0
7.0  21.0  0.0
0.0  19.25  0.0
15.75  35.0  0.0
15.75  33.25  0.0
1.75  19.25  0.0
7.875  21.0  0.0
3.5  19.25  0.0
10.5  22.75  0.0
15.75  31.5  0.0
12.25  24.5  0.0
14.875  28.0  0.0
14.0  26.25  0.0
8.75  21.0  0.0
15.75  29.75  0.0
5.25  19.25  0.0
16.625  35.0  0.0
13.125  24.5  0.0
9.625  21.0  0.0
16.625  31.5  0.0
7.0  19.25  0.0
15.75  28.0  0.0
12.25  22.75  0.0
14.0  24.5  0.0
17.5  35.0  0.0
0.0  17.5  0.0
10.5  21.0  0.0
0.875  17.5  0.0
1.75  17.5  0.0
17.5  33.25  0.0
2.625  17.5  0.0
17.5  31.5  0.0
3.5  17.5  0.0
8.75  19.25  0.0
15.75  26.25  0.0
4.375  17.5  0.0
11.375  21.0  0.0
16.625  28.0  0.0
14.875  24.5  0.0
17.5  29.75  0.0
5.25  17.5  0.0
6.125  17.5  0.0
14.0  22.75  0.0
12.25  21.0  0.0
7.0  17.5  0.0
17.5  28.0  0.0
10.5  19.25  0.0
15.75  24.5  0.0
7.875  17.5  0.0
13.125  21.0  0.0
0.0  15.75  0.0
1.75  15.75  0.0
3.5  15.75  0.0
17.5  26.25  0.0
8.75  17.5  0.0
16.625  24.5  0.0
14.0  21.0  0.0
12.25  19.25  0.0
15.75  22.75  0.0
5.25  15.75  0.0
9.625  17.5  0.0
17.5  24.5  0.0
10.5  17.5  0.0
14.875  21.0  0.0
7.0  15.75  0.0
11.375  17.5  0.0
0.0  14.0  0.0
0.875  14.0  0.0
14.0  19.25  0.0
1.75  14.0  0.0
15.75  21.0  0.0
8.75  15.75  0.0
2.625  14.0  0.0
3.5  14.0  0.0
12.25  17.5  0.0
17.5  22.75  0.0
4.375  14.0  0.0
5.25  14.0  0.0
16.625  21.0  0.0
6.125  14.0  0.0
13.125  17.5  0.0
10.5  15.75  0.0
7.0  14.0  0.0
15.75  19.25  0.0
17.5  21.0  0.0
14.0  17.5  0.0
7.875  14.0  0.0
0.0  12.25  0.0
8.75  14.0  0.0
12.25  15.75  0.0
1.75  12.25  0.0
14.875  17.5  0.0
3.5  12.25  0.0
9.625  14.0  0.0
5.25  12.25  0.0
10.5  14.0  0.0
15.75  17.5  0.0
17.5  19.25  0.0
7.0  12.25  0.0
14.0  15.75  0.0
11.375  14.0  0.0
16.625  17.5  0.0
12.25  14.0  0.0
8.75  12.25  0.0
0.0  10.5  0.0
0.875  10.5  0.0
1.75  10.5  0.0
2.625  10.5  0.0
3.5  10.5  0.0
17.5  17.5  0.0
13.125  14.0  0.0
15.75  15.75  0.0
4.375  10.5  0.0
5.25  10.5  0.0
10.5  12.25  0.0
14.0  14.0  0.0
6.125  10.5  0.0
7.0  10.5  0.0
14.875  14.0  0.0
7.875  10.5  0.0
12.25  12.25  0.0
17.5  15.75  0.0
8.75  10.5  0.0
15.75  14.0  0.0
0.0  8.75  0.0
1.75  8.75  0.0
9.625  10.5  0.0
3.5  8.75  0.0
10.5  10.5  0.0
14.0  12.25  0.0
5.25  8.75  0.0
16.625  14.0  0.0
11.375  10.5  0.0
7.0  8.75  0.0
17.5  14.0  0.0
12.25  10.5  0.0
15.75  12.25  0.0
8.75  8.75  0.0
13.125  10.5  0.0
0.0  7.0  0.0
0.875  7.0  0.0
1.75  7.0  0.0
2.625  7.0  0.0
3.5  7.0  0.0
14.0  10.5  0.0
10.5  8.75  0.0
4.375  7.0  0.0
5.25  7.0  0.0
6.125  7.0  0.0
14.875  10.5  0.0
17.5  12.25  0.0
7.0  7.0  0.0
12.25  8.75  0.0
7.875  7.0  0.0
15.75  10.5  0.0
8.75  7.0  0.0
16.625  10.5  0.0
9.625  7.0  0.0
14.0  8.75  0.0
0.0  5.25  0.0
1.75  5.25  0.0
10.5  7.0  0.0
3.5  5.25  0.0
17.5  10.5  0.0
5.25  5.25  0.0
11.375  7.0  0.0
7.0  5.25  0.0
12.25  7.0  0.0
15.75  8.75  0.0
13.125  7.0  0.0
8.75  5.25  0.0
14.0  7.0  0.0
0.0  3.5  0.0
0.875  3.5  0.0
10.5  5.25  0.0
17.5  8.75  0.0
1.75  3.5  0.0
2.625  3.5  0.0
3.5  3.5  0.0
14.875  7.0  0.0
4.375  3.5  0.0
5.25  3.5  0.0
6.125  3.5  0.0
15.75  7.0  0.0
12.25  5.25  0.0
7.0  3.5  0.0
7.875  3.5  0.0
16.625  7.0  0.0
8.75  3.5  0.0
14.0  5.25  0.0
9.625  3.5  0.0
17.5  7.0  0.0
10.5  3.5  0.0
0.0  1.75  0.0
1.75  1.75  0.0
3.5  1.75  0.0
11.375  3.5  0.0
15.75  5.25  0.0
5.25  1.75  0.0
12.25  3.5  0.0
7.0  1.75  0.0
13.125  3.5  0.0
8.75  1.75  0.0
14.0  3.5  0.0
17.5  5.25  0.0
14.875  3.5  0.0
10.5  1.75  0.0
0.0  0.0  0.0
0.875  0.0  0.0
1.75  0.0  0.0
2.625  0.0  0.0
3.5  0.0  0.0
15.75  3.5  0.0
4.375  0.0  0.0
5.25  0.0  0.0
12.25  1.75  0.0
6.125  0.0  0.0
16.625  3.5  0.0
7.0  0.0  0.0
7.875  0.0  0.0
17.5  3.5  0.0
8.75  0.0  0.0
14.0  1.75  0.0
9.625  0.0  0.0
10.5  0.0  0.0
15.75  1.75  0.0
11.375  0.0  0.0
12.25  0.0  0.0
13.125  0.0  0.0
17.5  1.75  0.0
14.0  0.0  0.0
14.875  0.0  0.0
15.75  0.0  0.0
16.625  0.0  0.0
17.5  0.0  0.0

CELLS 100 900
8  315  282  278  313  300  279  299  314
8  317  284  282  315  301  283  300  316
8  320  287  284  317  304  286  301  319
8  324  291  287  320  306  288  304  322
8  327  294  291  324  308  292  306  325
8  330  298  294  327  312  296  308  329
8  333  305  298  330  321  302  312  332
8  336  309  305  333  328  307  321  334
8  338  318  309  336  331  311  328  337
8  340  326  318  338  335  323  331  339
8  282  247  245  278  266  246  265  279
8  284  249  247  282  268  248  266  283
8  287  253  249  284  270  252  268  286
8  291  257  253  287  272  254  270  288
8  294  261  257  291  276  259  272  292
8  298  267  261  294  280  263  276  296
8  305  273  267  298  290  271  280  302
8  309  277  273  305  295  275  290  307
8  318  289  277  309  303  285  295  311
8  326  297  289  318  310  293  303  323
8  247  212  210  245  231  211  230  246
8  249  214  212  247  233  213  231  248
8  253  219  214  249  236  218  233  252
8  257  223  219  253  239  222  236  254
8  261  228  223  257  243  225  239  259
8  267  234  228  261  251  232  243  263
8  273  241  234  267  258  238  251  271
8  277  250  241  273  264  244  258  275
8  289  260  250  277  274  255  264  285
8  297  269  260  289  281  262  274  293
8  212  175  172  210  196  173  193  211
8  214  179  175  212  198  178  196  213
8  219  183  179  214  200  182  198  218
8  223  188  183  219  204  185  200  222
8  228  194  188  223  209  192  204  225
8  234  201  194  228  220  199  209  232
8  241  208  201  234  226  206  220  238
8  250  221  208  241  235  216  226  244
8  260  229  221  250  242  224  235  255
8  269  240  229  260  256  237  242  262
8  175  134  131  172  157  133  156  173
8  179  138  134  175  158  136  157  178
8  183  146  138  179  165  141  158  182
8  188  150  146  183  170  147  165  185
8  194  160  150  188  177  154  170  192
8  201  168  160  194  187  166  177  199
8  208  180  168  201  195  171  187  206
8  221  191  180  208  205  186  195  216
8  229  202  191  221  217  197  205  224
8  240  215  202  229  227  207  217  237
8  134  90  84  131  111  86  108  133
8  138  94  90  134  113  92  111  136
8  146  100  94  138  121  95  113  141
8  150  107  100  146  126  103  121  147
8  160  119  107  150  139  112  126  154
8  168  132  119  160  152  124  139  166
8  180  149  132  168  163  142  152  171
8  191  162  149  180  174  155  163  186
8  202  176  162  191  189  169  174  197
8  215  190  176  202  203  184  189  207
8  90  53  50  84  70  52  67  86
8  94  56  53  90  74  55  70  92
8  100  63  56  94  78  61  74  95
8  107  72  63  100  88  66  78  103
8  119  83  72  107  101  76  88  112
8  132  96  83  119  114  91  101  124
8  149  116  96  132  128  105  114  142
8  162  129  116  149  148  123  128  155
8  176  153  129  162  164  144  148  169
8  190  167  153  176  181  161  164  184
8  53  27  22  50  40  25  36  52
8  56  31  27  53  43  29  40  55
8  63  38  31  56  47  33  43  61
8  72  45  38  63  59  41  47  66
8  83  58  45  72  71  51  59  76
8  96  73  58  83  82  65  71  91
8  116  89  73  96  102  80  82  105
8  129  106  89  116  118  97  102  123
8  153  127  106  129  140  117  118  144
8  167  151  127  153  159  143  140  161
8  27  10  6  22  16  8  14  25
8  31  13  10  27  20  11  16  29
8  38  21  13  31  28  18  20  33
8  45  30  21  38  37  24  28  41
8  58  42  30  45  46  34  37  51
8  73  57  42  58  62  48  46  65
8  89  75  57  73  79  64  62  80
8  106  93  75  89  99  81  79  97
8  127  115  93  106  120  104  99  117
8  151  137  115  127  145  125  120  143
8  10  3  0  6  4  1  2  8
8  13  7  3  10  9  5  4  11
8  21  15  7  13  17  12  9  18
8  30  23  15  21  26  19  17  24
8  42  35  23  30  39  32  26  34
8  57  49  35  42  54  44  39  48
8  75  68  49  57  69  60  54  64
8  93  85  68  75  87  77  69  81
8  115  109  85  93  110  98  87  104
8  137  130  109  115  135  122  110  125

CELL_TYPES 100
23
23
23
23
23
23
23
23
23
23
23
23
23
23
23
23
23
23
23
23
23
23
23
23
23
23
23
23
23
23
23
23
23
23
23
23
23
23
23
23
23
23
23
23
23
23
23
23
23
23
23
23
23
23
23
23
23
23
23
23
23
23
23
23
23
23
23
23
23
23
23
23
23
23
23
23
23
23
23
23
23
23
23
23
23
23
23
23
23
23
23
23
23
23
23
23
23
23
23
23

POINT_DATA 341
SCALARS eps_princ_max float
LOOKUP_TABLE default
-0.00777778
-0.00775598
-0.00573956
-0.00768801
-0.00549744
-0.00756543
-0.00305192
-0.00738858
-0.00290339
-0.00503025
-0.00270701
-0.0024698
-0.00714616
-0.00216349
0.000259943
-0.0068403
0.000583181
-0.00428323
-0.00172995
-0.00647913
0.00118667
-0.00121033
0.00406621
-0.0060477
-0.000551851
0.00416966
-0.00321885
0.00435091
0.00220389
0.004636
0.000135722
0.00495412
-0.00554649
0.00550979
0.0010269
-0.00495594
0.00819121
0.00361856
0.00605102
-0.00173751
0.00845839
0.00676783
0.00191727
0.00908469
-0.00427502
0.00753185
0.00550157
0.0101009
0.00301362
-0.00347333
0.0125911
0.00842941
0.0126997
0.0128588
0.00015401
0.0131835
0.0134705
0.00421095
0.00939209
0.0115127
-0.00259183
0.0139117
0.0079656
0.0143899
0.00588004
0.0105993
0.0150823
0.0171509
-0.00150941
0.00291471
0.0173888
0.013405
0.0157632
0.0118201
0.0179144
0.0076157
0.0166866
-0.000181555
0.0188628
0.0111193
0.0133083
0.0095595
0.0157593
0.0176562
0.0216841
0.00148489
0.0218002
0.00720037
0.0201672
0.0148271
0.0219384
0.0187773
0.0221446
0.0117348
0.0223806
0.0228586
0.0199739
0.0163646
0.00431174
0.0142682
0.0233889
0.0219039
0.0184557
0.0240434
0.0141062
0.0210373
0.0183441
0.0245877
0.0261962
0.007839
0.0138297
0.0263706
0.0252791
0.0268929
0.0237684
0.0154506
0.0221297
0.0192276
0.0210176
0.0260408
0.0176153
0.0276842
0.0167272
0.0226481
0.0266683
0.0152492
0.028672
0.0206178
0.0248806
0.0231679
0.0260158
0.0305108
0.0273227
0.0305425
0.0305775
0.0185059
0.0308553
0.0209496
0.0311242
0.029779
0.0214614
0.0314252
0.0272332
0.0191812
0.0225656
0.0203747
0.0317053
0.0320087
0.0247008
0.0272062
0.0324045
0.0169615
0.0300682
0.0218229
0.0327071
0.0266627
0.0345974
0.0345266
0.0348354
0.0191378
0.0330504
0.0214914
0.0260572
0.0291917
0.0233145
0.0352504
0.0327194
0.0213273
0.0323357
0.0255104
0.0356929
0.0316645
0.0381565
0.0380206
0.0277751
0.0379276
0.0250014
0.0354327
0.0380009
0.0380703
0.0309601
0.0225077
0.0381745
0.0382858
0.0244782
0.0383153
0.0302153
0.0342841
0.0383764
0.0265985
0.0239268
0.0295073
0.0378403
0.0409713
0.0373088
0.0327492
0.0407048
0.0288423
0.0407503
0.0366256
0.0407489
0.0359269
0.0282153
0.0255232
0.0401668
0.0312499
0.0351201
0.0276811
0.0343638
0.0388914
0.0431184
0.0429722
0.0428362
0.0428108
0.0428243
0.0271284
0.0336659
0.0298487
0.0426962
0.0425658
0.0373894
0.0329176
0.0419606
0.0413793
0.0321752
0.0407491
0.0358168
0.0285881
0.0401183
0.0314966
0.0446942
0.0444275
0.0393556
0.0441974
0.0385865
0.034424
0.0434345
0.030836
0.0378423
0.042261
0.0301276
0.0370728
0.0330045
0.0409326
0.0364017
0.0457849
0.045619
0.0455059
0.0452633
0.0450232
0.0357759
0.0394814
0.0443857
0.0438275
0.0433163
0.0350894
0.0316924
0.0427252
0.0380828
0.0420312
0.0344109
0.0413352
0.0338066
0.0406702
0.0369032
0.0465494
0.0461478
0.0400535
0.04529
0.033201
0.0440195
0.0394575
0.0427029
0.0388226
0.0356683
0.0383196
0.041326
0.0378181
0.0471087
0.0468053
0.0402045
0.0344891
0.0465483
0.0459581
0.0453162
0.0372937
0.0446619
0.0440005
0.0432197
0.0368049
0.0391743
0.0424762
0.041796
0.0362577
0.0411002
0.0383752
0.0405884
0.0356931
0.0400702
0.0476355
0.0467809
0.045285
0.0395767
0.0375814
0.04375
0.0391689
0.0422301
0.038871
0.040875
0.0385643
0.0367527
0.0383472
0.0397922
0.0479726
0.0474401
0.0468917
0.0460556
0.0452519
0.0380778
0.0444113
0.0435752
0.0389019
0.0428534
0.0378306
0.0421176
0.0414539
0.0375908
0.0407826
0.0382351
0.0401898
0.0396246
0.0380395
0.0392015
0.0387451
0.0383543
0.0382518
0.0379503
0.0379407
0.0378966
0.0382751
0.0387064
